HEADER
"PSFversion" "1.00"
"Time Stamp" "Feb 15 20:46:51 2023"
TYPE
"variable" STRUCT(
"value" FLOAT DOUBLE
) PROP( "key" "element" )
VALUE
"VSS" "variable" ( 0 ) PROP( )
"VDD" "variable" ( 1.8 ) PROP( )
"VCM" "variable" ( 700e-3 ) PROP( )
"temp" "variable" ( 27 ) PROP( )
END
