HEADER
"PSFversion" "1.00"
"design" "(\"\" \"netlist\" \"schematic\" \"\")"
"simulator" "spectre"
"temperature" "27"
"host" ""
"date" "Apr 25 15:25:08 2025"
"title" ""
"analysisList" "()"
END
