HEADER
"PSFversion" "1.00"
"Time Stamp" "Apr 25 15:25:08 2025"
TYPE
"variable" STRUCT(
"value" FLOAT DOUBLE
) PROP( "key" "element" )
VALUE
"CL" "variable" ( 1e-12 ) PROP( )
"VCM" "variable" ( 1.375 ) PROP( )
"VDD" "variable" ( 1.4 ) PROP( )
"VSS" "variable" ( 0 ) PROP( )
"t_step" "variable" ( 10e-9 ) PROP( )
"vstep" "variable" ( 30e-3 ) PROP( )
"temp" "variable" ( 27 ) PROP( )
END
