HEADER
"PSFversion" "1.00"
"voutv" ":1v"
"ibn10uv" ":2v"
"VDDv" ":3v"
"vinv" ":4v"
"vipv" ":5v"
"VSSv" ":6v"
